-- Этот файл был сгенерирован тНавигатор v23.1-2487-g3f6d18383519.
-- Copyright (C) Рок Флоу Динамикс 2005-2023.
-- Все права защищены.


SPECGRID
 100 1 1 /

PINCH
 1* NOGAP /


JFUNCR
-- flag  o-w.surf.tension o-g.surf.tension poro.power perm.power perm.dir
   WATER 15               0                0.5        0.5        XY       /
/


NOECHO

COORD
  2*0 2000  2*0 2020    3    0 2000    3    0 2020    6    0 2000    6    0 2020    9    0 2000    9    0 2020   12    0 2000   12
    0 2020   15    0 2000   15    0 2020   18    0 2000   18    0 2020   21    0 2000   21    0 2020   24    0 2000   24    0 2020
   27    0 2000   27    0 2020   30    0 2000   30    0 2020   33    0 2000   33    0 2020   36    0 2000   36    0 2020   39    0
 2000   39    0 2020   42    0 2000   42    0 2020   45    0 2000   45    0 2020   48    0 2000   48    0 2020   51    0 2000   51
    0 2020   54    0 2000   54    0 2020   57    0 2000   57    0 2020   60    0 2000   60    0 2020   63    0 2000   63    0 2020
   66    0 2000   66    0 2020   69    0 2000   69    0 2020   72    0 2000   72    0 2020   75    0 2000   75    0 2020   78    0
 2000   78    0 2020   81    0 2000   81    0 2020   84    0 2000   84    0 2020   87    0 2000   87    0 2020   90    0 2000   90
    0 2020   93    0 2000   93    0 2020   96    0 2000   96    0 2020   99    0 2000   99    0 2020  102    0 2000  102    0 2020
  105    0 2000  105    0 2020  108    0 2000  108    0 2020  111    0 2000  111    0 2020  114    0 2000  114    0 2020  117    0
 2000  117    0 2020  120    0 2000  120    0 2020  123    0 2000  123    0 2020  126    0 2000  126    0 2020  129    0 2000  129
    0 2020  132    0 2000  132    0 2020  135    0 2000  135    0 2020  138    0 2000  138    0 2020  141    0 2000  141    0 2020
  144    0 2000  144    0 2020  147    0 2000  147    0 2020  150    0 2000  150    0 2020  153    0 2000  153    0 2020  156    0
 2000  156    0 2020  159    0 2000  159    0 2020  162    0 2000  162    0 2020  165    0 2000  165    0 2020  168    0 2000  168
    0 2020  171    0 2000  171    0 2020  174    0 2000  174    0 2020  177    0 2000  177    0 2020  180    0 2000  180    0 2020
  183    0 2000  183    0 2020  186    0 2000  186    0 2020  189    0 2000  189    0 2020  192    0 2000  192    0 2020  195    0
 2000  195    0 2020  198    0 2000  198    0 2020  201    0 2000  201    0 2020  204    0 2000  204    0 2020  207    0 2000  207
    0 2020  210    0 2000  210    0 2020  213    0 2000  213    0 2020  216    0 2000  216    0 2020  219    0 2000  219    0 2020
  222    0 2000  222    0 2020  225    0 2000  225    0 2020  228    0 2000  228    0 2020  231    0 2000  231    0 2020  234    0
 2000  234    0 2020  237    0 2000  237    0 2020  240    0 2000  240    0 2020  243    0 2000  243    0 2020  246    0 2000  246
    0 2020  249    0 2000  249    0 2020  252    0 2000  252    0 2020  255    0 2000  255    0 2020  258    0 2000  258    0 2020
  261    0 2000  261    0 2020  264    0 2000  264    0 2020  267    0 2000  267    0 2020  270    0 2000  270    0 2020  273    0
 2000  273    0 2020  276    0 2000  276    0 2020  279    0 2000  279    0 2020  282    0 2000  282    0 2020  285    0 2000  285
    0 2020  288    0 2000  288    0 2020  291    0 2000  291    0 2020  294    0 2000  294    0 2020  297    0 2000  297    0 2020
  300    0 2000  300    0 2020    0   20 2000    0   20 2020    3   20 2000    3   20 2020    6   20 2000    6   20 2020    9   20
 2000    9   20 2020   12   20 2000   12   20 2020   15   20 2000   15   20 2020   18   20 2000   18   20 2020   21   20 2000   21
   20 2020   24   20 2000   24   20 2020   27   20 2000   27   20 2020   30   20 2000   30   20 2020   33   20 2000   33   20 2020
   36   20 2000   36   20 2020   39   20 2000   39   20 2020   42   20 2000   42   20 2020   45   20 2000   45   20 2020   48   20
 2000   48   20 2020   51   20 2000   51   20 2020   54   20 2000   54   20 2020   57   20 2000   57   20 2020   60   20 2000   60
   20 2020   63   20 2000   63   20 2020   66   20 2000   66   20 2020   69   20 2000   69   20 2020   72   20 2000   72   20 2020
   75   20 2000   75   20 2020   78   20 2000   78   20 2020   81   20 2000   81   20 2020   84   20 2000   84   20 2020   87   20
 2000   87   20 2020   90   20 2000   90   20 2020   93   20 2000   93   20 2020   96   20 2000   96   20 2020   99   20 2000   99
   20 2020  102   20 2000  102   20 2020  105   20 2000  105   20 2020  108   20 2000  108   20 2020  111   20 2000  111   20 2020
  114   20 2000  114   20 2020  117   20 2000  117   20 2020  120   20 2000  120   20 2020  123   20 2000  123   20 2020  126   20
 2000  126   20 2020  129   20 2000  129   20 2020  132   20 2000  132   20 2020  135   20 2000  135   20 2020  138   20 2000  138
   20 2020  141   20 2000  141   20 2020  144   20 2000  144   20 2020  147   20 2000  147   20 2020  150   20 2000  150   20 2020
  153   20 2000  153   20 2020  156   20 2000  156   20 2020  159   20 2000  159   20 2020  162   20 2000  162   20 2020  165   20
 2000  165   20 2020  168   20 2000  168   20 2020  171   20 2000  171   20 2020  174   20 2000  174   20 2020  177   20 2000  177
   20 2020  180   20 2000  180   20 2020  183   20 2000  183   20 2020  186   20 2000  186   20 2020  189   20 2000  189   20 2020
  192   20 2000  192   20 2020  195   20 2000  195   20 2020  198   20 2000  198   20 2020  201   20 2000  201   20 2020  204   20
 2000  204   20 2020  207   20 2000  207   20 2020  210   20 2000  210   20 2020  213   20 2000  213   20 2020  216   20 2000  216
   20 2020  219   20 2000  219   20 2020  222   20 2000  222   20 2020  225   20 2000  225   20 2020  228   20 2000  228   20 2020
  231   20 2000  231   20 2020  234   20 2000  234   20 2020  237   20 2000  237   20 2020  240   20 2000  240   20 2020  243   20
 2000  243   20 2020  246   20 2000  246   20 2020  249   20 2000  249   20 2020  252   20 2000  252   20 2020  255   20 2000  255
   20 2020  258   20 2000  258   20 2020  261   20 2000  261   20 2020  264   20 2000  264   20 2020  267   20 2000  267   20 2020
  270   20 2000  270   20 2020  273   20 2000  273   20 2020  276   20 2000  276   20 2020  279   20 2000  279   20 2020  282   20
 2000  282   20 2020  285   20 2000  285   20 2020  288   20 2000  288   20 2020  291   20 2000  291   20 2020  294   20 2000  294
   20 2020  297   20 2000  297   20 2020  300   20 2000  300   20 2020 /

NOECHO

ZCORN
 400*2000 400*2020 /

NOECHO

ACTNUM
 100*1 /

NOECHO

NTG
 100*1 /

NOECHO

PERMX
 100*100 /

NOECHO

PERMY
 100*100 /

NOECHO

PERMZ
 100*100 /

NOECHO

PORO
 100*0.2 /
